/*--------------------------------*- C++ -*----------------------------------*\
| =========                 |                                                 |
| \\      /  F ield         | OpenFOAM: The Open Source CFD Toolbox           |
|  \\    /   O peration     | Version:  11                                    |
|   \\  /    A nd           | Web:      www.openfoam.org                      |
|    \\/     M anipulation  |                                                 |
\*---------------------------------------------------------------------------*/
FoamFile
{
    version     2.0;
    format      ascii;
    class       volScalarField;
    location    "0";
    object      p;
}
// * * * * * * * * * * * * * * * * * * * * * * * * * * * * * * * * * * * * * //
// メッシュ生成フェーズ専用 BC

dimensions      [0 2 -2 0 0 0 0];

internalField   uniform 0;

boundaryField
{
    allBoundary
    {
        type            zeroGradient;
    }

    top
    {
        type            symmetry;
    }

    reactor_HD0.45
    {
        type            zeroGradient;
    }

    impeller_HD0.45
    {
        type            zeroGradient;
    }

    shaft_HD0.45
    {
        type            zeroGradient;
    }

    baffle_HD0.45
    {
        type            zeroGradient;
    }
}

// ************************************************************************* //
